
Host: halstead-a427.rcac.purdue.edu

Timers On : Fri Feb 28 11:06:46 2020
Timers Off: Fri Feb 28 12:48:27 2020

Wall Time:     6100.29 seconds

                                                       Time (seconds)
Module                                       User      System        Wall        Calls
Total PK formation time             :      0.300u      0.167s      0.304w      1 calls
V: Grid                             :      0.400u      1.067s      0.878w      4 calls
JK: D                               :      0.000u      0.000s      0.002w    202 calls
JK: USO2AO                          :      0.000u      0.000s      0.002w    202 calls
JK: JK                              :      0.050u      0.050s      0.068w    202 calls
PK computes JK                      :      0.050u      0.050s      0.068w    202 calls
JK: AO2USO                          :      0.000u      0.000s      0.000w    202 calls

--------------------------------------------------------------------------------------
Total PK formation time             :      0.300u      0.167s      0.304w      1 calls
V: Grid                             :      0.400u      1.067s      0.878w      4 calls
JK: D                               :      0.000u      0.000s      0.002w    202 calls
JK: USO2AO                          :      0.000u      0.000s      0.002w    202 calls
JK: JK                              :      0.050u      0.050s      0.068w    202 calls
| PK computes JK                    :      0.050u      0.050s      0.068w    202 calls
JK: AO2USO                          :      0.000u      0.000s      0.000w    202 calls

**************************************************************************************

Host: halstead-a269.rcac.purdue.edu

Timers On : Fri Feb 28 15:13:29 2020
Timers Off: Fri Feb 28 16:56:50 2020

Wall Time:     6200.53 seconds

                                                       Time (seconds)
Module                                       User      System        Wall        Calls
V: Grid                             :      0.550u      1.783s      1.408w      4 calls
Total PK formation time             :      0.350u      0.217s      0.345w      1 calls
JK: D                               :      0.017u      0.000s      0.003w    214 calls
JK: USO2AO                          :      0.000u      0.000s      0.002w    214 calls
JK: JK                              :      0.017u      0.050s      0.040w    214 calls
PK computes JK                      :      0.017u      0.050s      0.039w    214 calls
JK: AO2USO                          :      0.000u      0.000s      0.000w    214 calls

--------------------------------------------------------------------------------------
V: Grid                             :      0.550u      1.783s      1.408w      4 calls
Total PK formation time             :      0.350u      0.217s      0.345w      1 calls
JK: D                               :      0.017u      0.000s      0.003w    214 calls
JK: USO2AO                          :      0.000u      0.000s      0.002w    214 calls
JK: JK                              :      0.017u      0.050s      0.040w    214 calls
| PK computes JK                    :      0.017u      0.050s      0.039w    214 calls
JK: AO2USO                          :      0.000u      0.000s      0.000w    214 calls

**************************************************************************************

Host: halstead-a240.rcac.purdue.edu

Timers On : Sat Feb 29 21:52:37 2020
Timers Off: Mon Mar  2 15:21:33 2020

Wall Time:   149336.21 seconds

                                                       Time (seconds)
Module                                       User      System        Wall        Calls
V: Grid                             :     39.283u     84.083s     73.894w    196 calls
Total PK formation time             :     18.450u     12.350s     18.678w     49 calls
JK: D                               :      0.017u      0.033s      0.031w   3197 calls
JK: USO2AO                          :      0.017u      0.033s      0.027w   3197 calls
JK: JK                              :      0.117u      0.400s      0.245w   3197 calls
PK computes JK                      :      0.100u      0.367s      0.216w   3197 calls
JK: AO2USO                          :      0.000u      0.000s      0.006w   3197 calls

--------------------------------------------------------------------------------------
V: Grid                             :     39.283u     84.083s     73.894w    196 calls
Total PK formation time             :     18.450u     12.350s     18.678w     49 calls
JK: D                               :      0.017u      0.033s      0.031w   3197 calls
JK: USO2AO                          :      0.017u      0.033s      0.027w   3197 calls
JK: JK                              :      0.117u      0.400s      0.245w   3197 calls
| PK computes JK                    :      0.100u      0.367s      0.216w   3197 calls
JK: AO2USO                          :      0.000u      0.000s      0.006w   3197 calls

**************************************************************************************

Host: PartitionStation

Timers On : Tue Mar  3 17:20:21 2020
Timers Off: Tue Mar  3 17:54:38 2020

Wall Time:     2056.92 seconds

                                                       Time (seconds)
Module                                       User      System        Wall        Calls
V: Grid                             :     17.083u     21.300s      2.919w     98 calls
DFH: sparsity prep                  :      2.867u      0.050s      1.779w     98 calls
DFH: initialize()                   :    158.950u    160.900s     25.048w     98 calls
DFH: AO Construction                :      0.717u      0.850s      0.117w     98 calls
DFH: AO-Met. Contraction            :      0.100u      0.067s      0.014w     98 calls
HF: Form core H                     :      1.383u      2.300s      0.275w     98 calls
HF: Form S/X                        :      0.150u      0.300s      0.040w     98 calls
HF: Guess                           :    188.983u    199.533s     34.473w     98 calls
SAD Guess                           :    176.783u    183.300s     32.311w     98 calls
HF: Form G                          :    524.733u    256.133s     59.564w    490 calls
UV: Form V                          :    522.633u    254.867s     59.309w    490 calls
Properties                          :    166.933u     59.867s     17.199w 210860 calls
Functional                          :    222.250u    123.467s     26.662w 210860 calls
V_xc                                :    110.167u     54.950s     12.696w 210860 calls
JK: D                               :      0.117u      0.050s      0.011w    490 calls
JK: USO2AO                          :      0.050u      0.000s      0.005w    490 calls
JK: JK                              :      0.817u      0.567s      0.096w    490 calls
DFH: compute_JK()                   :      0.767u      0.533s      0.092w    490 calls
DFH: Grabbing AOs                   :      0.000u      0.000s      0.001w    490 calls
DFH: compute_J                      :      0.483u      0.317s      0.054w    490 calls
JK: AO2USO                          :      0.017u      0.000s      0.001w    490 calls
HF: Form F                          :      0.817u      0.883s      0.128w    490 calls
HF: Form D                          :      0.750u      1.000s      0.135w    490 calls
HF: DIIS                            :      3.667u      3.900s      0.578w    392 calls
DIISManager::add_entry              :      0.633u      0.883s      0.138w    392 calls
DIISManager::extrapolate            :      0.367u      0.317s      0.059w    392 calls
bMatrix setup                       :      0.100u      0.083s      0.018w    392 calls
bMatrix pseudoinverse               :      0.167u      0.150s      0.023w    392 calls
New vector                          :      0.067u      0.033s      0.013w    392 calls
HF: Form C                          :      0.317u      0.600s      0.073w    392 calls

--------------------------------------------------------------------------------------
V: Grid                             :     17.083u     21.300s      2.919w     98 calls
DFH: sparsity prep                  :      2.867u      0.050s      1.779w     98 calls
DFH: initialize()                   :    158.950u    160.900s     25.048w     98 calls
| DFH: AO Construction              :      0.717u      0.850s      0.117w     98 calls
| DFH: AO-Met. Contraction          :      0.100u      0.067s      0.014w     98 calls
HF: Form core H                     :      1.383u      2.300s      0.275w     98 calls
HF: Form S/X                        :      0.150u      0.300s      0.040w     98 calls
HF: Guess                           :    188.983u    199.533s     34.473w     98 calls
| SAD Guess                         :    176.783u    183.300s     32.311w     98 calls
HF: Form G                          :    524.733u    256.133s     59.564w    490 calls
| UV: Form V                        :    522.633u    254.867s     59.309w    490 calls
| | Properties                      :    166.933u     59.867s     17.199w 210860 calls
| | Functional                      :    222.250u    123.467s     26.662w 210860 calls
| | V_xc                            :    110.167u     54.950s     12.696w 210860 calls
| JK: D                             :      0.117u      0.050s      0.011w    490 calls
| JK: USO2AO                        :      0.050u      0.000s      0.005w    490 calls
| JK: JK                            :      0.817u      0.567s      0.096w    490 calls
| | DFH: compute_JK()               :      0.767u      0.533s      0.092w    490 calls
| | | DFH: Grabbing AOs             :      0.000u      0.000s      0.001w    490 calls
| | | DFH: compute_J                :      0.483u      0.317s      0.054w    490 calls
| JK: AO2USO                        :      0.017u      0.000s      0.001w    490 calls
HF: Form F                          :      0.817u      0.883s      0.128w    490 calls
HF: Form D                          :      0.750u      1.000s      0.135w    490 calls
HF: DIIS                            :      3.667u      3.900s      0.578w    392 calls
| DIISManager::add_entry            :      0.633u      0.883s      0.138w    392 calls
| DIISManager::extrapolate          :      0.367u      0.317s      0.059w    392 calls
| | bMatrix setup                   :      0.100u      0.083s      0.018w    392 calls
| | bMatrix pseudoinverse           :      0.167u      0.150s      0.023w    392 calls
| | New vector                      :      0.067u      0.033s      0.013w    392 calls
HF: Form C                          :      0.317u      0.600s      0.073w    392 calls

**************************************************************************************

Host: PartitionStation

Timers On : Fri Mar  6 12:01:32 2020
Timers Off: Fri Mar  6 12:13:34 2020

Wall Time:      721.61 seconds

                                                       Time (seconds)
Module                                       User      System        Wall        Calls

--------------------------------------------------------------------------------------

**************************************************************************************

Host: PartitionStation

Timers On : Mon Mar  9 10:41:19 2020
Timers Off: Tue Mar 10 13:55:59 2020

Wall Time:    98079.88 seconds

                                                       Time (seconds)
Module                                       User      System        Wall        Calls
V: Grid                             :     18.617u     22.583s      4.306w     98 calls
DFH: sparsity prep                  :      3.333u      0.017s      2.041w     98 calls
DFH: initialize()                   :    147.800u    129.600s     32.943w     98 calls
DFH: AO Construction                :      0.683u      0.783s      0.165w     98 calls
DFH: AO-Met. Contraction            :      0.133u      0.267s      0.047w     98 calls
HF: Form core H                     :      1.183u      1.683s      0.311w     98 calls
HF: Form S/X                        :      0.250u      0.250s      0.049w     98 calls
HF: Guess                           :    177.367u    163.850s     44.602w     98 calls
SAD Guess                           :    164.500u    147.650s     41.582w     98 calls
HF: Form G                          :    583.500u    262.567s     90.455w    490 calls
UV: Form V                          :    580.733u    259.783s     89.876w    490 calls
Properties                          :    210.617u     57.400s     28.843w 210860 calls
Functional                          :    203.033u    110.150s     32.991w 210860 calls
V_xc                                :    130.983u     52.967s     20.136w 210860 calls
JK: D                               :      0.050u      0.033s      0.014w    490 calls
JK: USO2AO                          :      0.017u      0.033s      0.005w    490 calls
JK: JK                              :      1.200u      1.150s      0.234w    490 calls
DFH: compute_JK()                   :      1.183u      1.133s      0.230w    490 calls
DFH: Grabbing AOs                   :      0.000u      0.017s      0.001w    490 calls
DFH: compute_J                      :      0.650u      0.733s      0.140w    490 calls
JK: AO2USO                          :      0.017u      0.000s      0.001w    490 calls
HF: Form F                          :      1.583u      2.150s      0.426w    490 calls
HF: Form D                          :      1.567u      2.317s      0.388w    490 calls
HF: DIIS                            :      3.867u      4.700s      0.920w    392 calls
DIISManager::add_entry              :      0.933u      1.367s      0.264w    392 calls
DIISManager::extrapolate            :      0.250u      0.417s      0.063w    392 calls
bMatrix setup                       :      0.150u      0.117s      0.020w    392 calls
bMatrix pseudoinverse               :      0.033u      0.150s      0.023w    392 calls
New vector                          :      0.033u      0.133s      0.014w    392 calls
HF: Form C                          :      0.333u      0.433s      0.081w    392 calls

--------------------------------------------------------------------------------------
V: Grid                             :     18.617u     22.583s      4.306w     98 calls
DFH: sparsity prep                  :      3.333u      0.017s      2.041w     98 calls
DFH: initialize()                   :    147.800u    129.600s     32.943w     98 calls
| DFH: AO Construction              :      0.683u      0.783s      0.165w     98 calls
| DFH: AO-Met. Contraction          :      0.133u      0.267s      0.047w     98 calls
HF: Form core H                     :      1.183u      1.683s      0.311w     98 calls
HF: Form S/X                        :      0.250u      0.250s      0.049w     98 calls
HF: Guess                           :    177.367u    163.850s     44.602w     98 calls
| SAD Guess                         :    164.500u    147.650s     41.582w     98 calls
HF: Form G                          :    583.500u    262.567s     90.455w    490 calls
| UV: Form V                        :    580.733u    259.783s     89.876w    490 calls
| | Properties                      :    210.617u     57.400s     28.843w 210860 calls
| | Functional                      :    203.033u    110.150s     32.991w 210860 calls
| | V_xc                            :    130.983u     52.967s     20.136w 210860 calls
| JK: D                             :      0.050u      0.033s      0.014w    490 calls
| JK: USO2AO                        :      0.017u      0.033s      0.005w    490 calls
| JK: JK                            :      1.200u      1.150s      0.234w    490 calls
| | DFH: compute_JK()               :      1.183u      1.133s      0.230w    490 calls
| | | DFH: Grabbing AOs             :      0.000u      0.017s      0.001w    490 calls
| | | DFH: compute_J                :      0.650u      0.733s      0.140w    490 calls
| JK: AO2USO                        :      0.017u      0.000s      0.001w    490 calls
HF: Form F                          :      1.583u      2.150s      0.426w    490 calls
HF: Form D                          :      1.567u      2.317s      0.388w    490 calls
HF: DIIS                            :      3.867u      4.700s      0.920w    392 calls
| DIISManager::add_entry            :      0.933u      1.367s      0.264w    392 calls
| DIISManager::extrapolate          :      0.250u      0.417s      0.063w    392 calls
| | bMatrix setup                   :      0.150u      0.117s      0.020w    392 calls
| | bMatrix pseudoinverse           :      0.033u      0.150s      0.023w    392 calls
| | New vector                      :      0.033u      0.133s      0.014w    392 calls
HF: Form C                          :      0.333u      0.433s      0.081w    392 calls

**************************************************************************************

Host: PartitionStation

Timers On : Tue Mar 10 13:44:38 2020
Timers Off: Tue Mar 10 15:05:04 2020

Wall Time:     4826.17 seconds

                                                       Time (seconds)
Module                                       User      System        Wall        Calls
V: Grid                             :     20.567u     25.250s      3.907w     49 calls
DFH: sparsity prep                  :      3.617u      0.017s      2.205w     49 calls
DFH: initialize()                   :    132.317u     91.800s     28.145w     49 calls
DFH: AO Construction                :      0.550u      0.983s      0.130w     49 calls
DFH: AO-Met. Contraction            :      0.150u      0.217s      0.047w     49 calls
HF: Form core H                     :      3.817u      5.950s      0.802w     49 calls
HF: Form S/X                        :      0.283u      0.383s      0.054w     49 calls
HF: Guess                           :    150.333u    119.433s     34.166w     49 calls
SAD Guess                           :    133.917u     98.233s     31.062w     49 calls
HF: Form G                          :    293.167u    140.233s     39.873w    245 calls
UV: Form V                          :    290.200u    136.833s     39.220w    245 calls
Properties                          :     81.233u     25.833s      9.302w 105430 calls
Functional                          :    131.583u     70.317s     18.888w 105430 calls
V_xc                                :     56.433u     23.733s      7.632w 105430 calls
JK: D                               :      0.050u      0.033s      0.010w    245 calls
JK: USO2AO                          :      0.067u      0.017s      0.004w    245 calls
JK: JK                              :      1.450u      1.550s      0.343w    245 calls
DFH: compute_JK()                   :      1.383u      1.550s      0.340w    245 calls
DFH: Grabbing AOs                   :      0.000u      0.000s      0.001w    245 calls
DFH: compute_J                      :      0.817u      1.200s      0.245w    245 calls
JK: AO2USO                          :      0.000u      0.017s      0.001w    245 calls
HF: Form F                          :      1.200u      1.517s      0.254w    245 calls
HF: Form D                          :      1.033u      1.550s      0.230w    245 calls
HF: DIIS                            :      4.017u      4.483s      0.735w    196 calls
DIISManager::add_entry              :      0.650u      0.900s      0.123w    196 calls
DIISManager::extrapolate            :      0.400u      0.400s      0.052w    196 calls
bMatrix setup                       :      0.133u      0.100s      0.017w    196 calls
bMatrix pseudoinverse               :      0.133u      0.083s      0.018w    196 calls
New vector                          :      0.117u      0.167s      0.012w    196 calls
HF: Form C                          :      0.300u      0.283s      0.067w    196 calls

--------------------------------------------------------------------------------------
V: Grid                             :     20.567u     25.250s      3.907w     49 calls
DFH: sparsity prep                  :      3.617u      0.017s      2.205w     49 calls
DFH: initialize()                   :    132.317u     91.800s     28.145w     49 calls
| DFH: AO Construction              :      0.550u      0.983s      0.130w     49 calls
| DFH: AO-Met. Contraction          :      0.150u      0.217s      0.047w     49 calls
HF: Form core H                     :      3.817u      5.950s      0.802w     49 calls
HF: Form S/X                        :      0.283u      0.383s      0.054w     49 calls
HF: Guess                           :    150.333u    119.433s     34.166w     49 calls
| SAD Guess                         :    133.917u     98.233s     31.062w     49 calls
HF: Form G                          :    293.167u    140.233s     39.873w    245 calls
| UV: Form V                        :    290.200u    136.833s     39.220w    245 calls
| | Properties                      :     81.233u     25.833s      9.302w 105430 calls
| | Functional                      :    131.583u     70.317s     18.888w 105430 calls
| | V_xc                            :     56.433u     23.733s      7.632w 105430 calls
| JK: D                             :      0.050u      0.033s      0.010w    245 calls
| JK: USO2AO                        :      0.067u      0.017s      0.004w    245 calls
| JK: JK                            :      1.450u      1.550s      0.343w    245 calls
| | DFH: compute_JK()               :      1.383u      1.550s      0.340w    245 calls
| | | DFH: Grabbing AOs             :      0.000u      0.000s      0.001w    245 calls
| | | DFH: compute_J                :      0.817u      1.200s      0.245w    245 calls
| JK: AO2USO                        :      0.000u      0.017s      0.001w    245 calls
HF: Form F                          :      1.200u      1.517s      0.254w    245 calls
HF: Form D                          :      1.033u      1.550s      0.230w    245 calls
HF: DIIS                            :      4.017u      4.483s      0.735w    196 calls
| DIISManager::add_entry            :      0.650u      0.900s      0.123w    196 calls
| DIISManager::extrapolate          :      0.400u      0.400s      0.052w    196 calls
| | bMatrix setup                   :      0.133u      0.100s      0.017w    196 calls
| | bMatrix pseudoinverse           :      0.133u      0.083s      0.018w    196 calls
| | New vector                      :      0.117u      0.167s      0.012w    196 calls
HF: Form C                          :      0.300u      0.283s      0.067w    196 calls

**************************************************************************************
