
Host: DESKTOP-GRJIQEP

Timers On : Sun Jan 19 15:12:15 2020
Timers Off: Sun Jan 19 15:12:34 2020

Wall Time:       18.11 seconds

                                                       Time (seconds)
Module                                       User      System        Wall        Calls

--------------------------------------------------------------------------------------

**************************************************************************************

Host: DESKTOP-GRJIQEP

Timers On : Sun Jan 19 15:12:40 2020
Timers Off: Sun Jan 19 15:29:36 2020

Wall Time:     1016.53 seconds

                                                       Time (seconds)
Module                                       User      System        Wall        Calls

--------------------------------------------------------------------------------------

**************************************************************************************
